# vtk DataFile Version 5.1
vtk output
ASCII
DATASET UNSTRUCTURED_GRID
POINTS 25977 float
-15000 -15000 -15000 -13965.5 -15000 -15000 -12931 -15000 -15000 
-11896.6 -15000 -15000 -10862.1 -15000 -15000 -9827.59 -15000 -15000 
-8793.1 -15000 -15000 -7758.62 -15000 -15000 -6724.14 -15000 -15000 
-5689.66 -15000 -15000 -4655.17 -15000 -15000 -3620.69 -15000 -15000 
-2586.21 -15000 -15000 -1551.72 -15000 -15000 -517.241 -15000 -15000 
517.241 -15000 -15000 1551.72 -15000 -15000 2586.21 -15000 -15000 
3620.69 -15000 -15000 4655.17 -15000 -15000 5689.66 -15000 -15000 
6724.14 -15000 -15000 7758.62 -15000 -15000 8793.1 -15000 -15000 
9827.59 -15000 -15000 10862.1 -15000 -15000 11896.6 -15000 -15000 
12931 -15000 -15000 13965.5 -15000 -15000 15000 -15000 -15000 
-15000 -13965.5 -15000 -13965.5 -13965.5 -15000 -12931 -13965.5 -15000 
-11896.6 -13965.5 -15000 -10862.1 -13965.5 -15000 -9827.59 -13965.5 -15000 
-8793.1 -13965.5 -15000 -7758.62 -13965.5 -15000 -6724.14 -13965.5 -15000 
-5689.66 -13965.5 -15000 -4655.17 -13965.5 -15000 -3620.69 -13965.5 -15000 
-2586.21 -13965.5 -15000 -1551.72 -13965.5 -15000 -517.241 -13965.5 -15000 
517.241 -13965.5 -15000 1551.72 -13965.5 -15000 2586.21 -13965.5 -15000 
3620.69 -13965.5 -15000 4655.17 -13965.5 -15000 5689.66 -13965.5 -15000 
6724.14 -13965.5 -15000 7758.62 -13965.5 -15000 8793.1 -13965.5 -15000 
9827.59 -13965.5 -15000 10862.1 -13965.5 -15000 11896.6 -13965.5 -15000 
12931 -13965.5 -15000 13965.5 -13965.5 -15000 15000 -13965.5 -15000 
-15000 -12931 -15000 -13965.5 -12931 -15000 -12931 -12931 -15000 
-11896.6 -12931 -15000 -10862.1 -12931 -15000 -9827.59 -12931 -15000 
-8793.1 -12931 -15000 -7758.62 -12931 -15000 -6724.14 -12931 -15000 
-5689.66 -12931 -15000 -4655.17 -12931 -15000 -3620.69 -12931 -15000 
-2586.21 -12931 -15000 -1551.72 -12931 -15000 -517.241 -12931 -15000 
517.241 -12931 -15000 1551.72 -12931 -15000 2586.21 -12931 -15000 
3620.69 -12931 -15000 4655.17 -12931 -15000 5689.66 -12931 -15000 
6724.14 -12931 -15000 7758.62 -12931 -15000 8793.1 -12931 -15000 
9827.59 -12931 -15000 10862.1 -12931 -15000 11896.6 -12931 -15000 
12931 -12931 -15000 13965.5 -12931 -15000 15000 -12931 -15000 
-15000 -11896.6 -15000 -13965.5 -11896.6 -15000 -12931 -11896.6 -15000 
-11896.6 -11896.6 -15000 -10862.1 -11896.6 -15000 -9827.59 -11896.6 -15000 
-8793.1 -11896.6 -15000 -7758.62 -11896.6 -15000 -6724.14 -11896.6 -15000 
-5689.66 -11896.6 -15000 -4655.17 -11896.6 -15000 -3620.69 -11896.6 -15000 
-2586.21 -11896.6 -15000 -1551.72 -11896.6 -15000 -517.241 -11896.6 -15000 
517.241 -11896.6 -15000 1551.72 -11896.6 -15000 2586.21 -11896.6 -15000 
3620.69 -11896.6 -15000 4655.17 -11896.6 -15000 5689.66 -11896.6 -15000 
6724.14 -11896.6 -15000 7758.62 -11896.6 -15000 8793.1 -11896.6 -15000 
9827.59 -11896.6 -15000 10862.1 -11896.6 -15000 11896.6 -11896.6 -15000 
12931 -11896.6 -15000 13965.5 -11896.6 -15000 15000 -11896.6 -15000 
-15000 -10862.1 -15000 -13965.5 -10862.1 -15000 -12931 -10862.1 -15000 
-11896.6 -10862.1 -15000 -10862.1 -10862.1 -15000 -9827.59 -10862.1 -15000 
-8793.1 -10862.1 -15000 -7758.62 -10862.1 -15000 -6724.14 -10862.1 -15000 
-5689.66 -10862.1 -15000 -4655.17 -10862.1 -15000 -3620.69 -10862.1 -15000 
-2586.21 -10862.1 -15000 -1551.72 -10862.1 -15000 -517.241 -10862.1 -15000 
517.241 -10862.1 -15000 1551.72 -10862.1 -15000 2586.21 -10862.1 -15000 
3620.69 -10862.1 -15000 4655.17 -10862.1 -15000 5689.66 -10862.1 -15000 
6724.14 -10862.1 -15000 7758.62 -10862.1 -15000 8793.1 -10862.1 -15000 
9827.59 -10862.1 -15000 10862.1 -10862.1 -15000 11896.6 -10862.1 -15000 
12931 -10862.1 -15000 13965.5 -10862.1 -15000 15000 -10862.1 -15000 
-15000 -9827.59 -15000 -13965.5 -9827.59 -15000 -12931 -9827.59 -15000 
-11896.6 -9827.59 -15000 -10862.1 -9827.59 -15000 -9827.59 -9827.59 -15000 
-8793.1 -9827.59 -15000 -7758.62 -9827.59 -15000 -6724.14 -9827.59 -15000 
-5689.66 -9827.59 -15000 -4655.17 -9827.59 -15000 -3620.69 -9827.59 -15000 
-2586.21 -9827.59 -15000 -1551.72 -9827.59 -15000 -517.241 -9827.59 -15000 
517.241 -9827.59 -15000 1551.72 -9827.59 -15000 2586.21 -9827.59 -15000 
3620.69 -9827.59 -15000 4655.17 -9827.59 -15000 5689.66 -9827.59 -15000 
6724.14 -9827.59 -15000 7758.62 -9827.59 -15000 8793.1 -9827.59 -15000 
9827.59 -9827.59 -15000 10862.1 -9827.59 -15000 11896.6 -9827.59 -15000 
12931 -9827.59 -15000 13965.5 -9827.59 -15000 15000 -9827.59 -15000 
-15000 -8793.1 -15000 -13965.5 -8793.1 -15000 -12931 -8793.1 -15000 
-11896.6 -8793.1 -15000 -10862.1 -8793.1 -15000 -9827.59 -8793.1 -15000 
-8793.1 -8793.1 -15000 -7758.62 -8793.1 -15000 -6724.14 -8793.1 -15000 
-5689.66 -8793.1 -15000 -4655.17 -8793.1 -15000 -3620.69 -8793.1 -15000 
-2586.21 -8793.1 -15000 -1551.72 -8793.1 -15000 -517.241 -8793.1 -15000 
517.241 -8793.1 -15000 1551.72 -8793.1 -15000 2586.21 -8793.1 -15000 
3620.69 -8793.1 -15000 4655.17 -8793.1 -15000 5689.66 -8793.1 -15000 
6724.14 -8793.1 -15000 7758.62 -8793.1 -15000 8793.1 -8793.1 -15000 
9827.59 -8793.1 -15000 10862.1 -8793.1 -15000 11896.6 -8793.1 -15000 
12931 -8793.1 -15000 13965.5 -8793.1 -15000 15000 -8793.1 -15000 
-15000 -7758.62 -15000 -13965.5 -7758.62 -15000 -12931 -7758.62 -15000 
-11896.6 -7758.62 -15000 -10862.1 -7758.62 -15000 -9827.59 -7758.62 -15000 
-8793.1 -7758.62 -15000 -7758.62 -7758.62 -15000 -6724.14 -7758.62 -15000 
-5689.66 -7758.62 -15000 -4655.17 -7758.62 -15000 -3620.69 -7758.62 -15000 
-2586.21 -7758.62 -15000 -1551.72 -7758.62 -15000 -517.241 -7758.62 -15000 
517.241 -7758.62 -15000 1551.72 -7758.62 -15000 2586.21 -7758.62 -15000 
3620.69 -7758.62 -15000 4655.17 -7758.62 -15000 5689.66 -7758.62 -15000 
6724.14 -7758.62 -15000 7758.62 -7758.62 -15000 8793.1 -7758.62 -15000 
9827.59 -7758.62 -15000 10862.1 -7758.62 -15000 11896.6 -7758.62 -15000 
12931 -7758.62 -15000 13965.5 -7758.62 -15000 15000 -7758.62 -15000 
-15000 -6724.14 -15000 -13965.5 -6724.14 -15000 -12931 -6724.14 -15000 
-11896.6 -6724.14 -15000 -10862.1 -6724.14 -15000 -9827.59 -6724.14 -15000 
-8793.1 -6724.14 -15000 -7758.62 -6724.14 -15000 -6724.14 -6724.14 -15000 
-5689.66 -6724.14 -15000 -4655.17 -6724.14 -15000 -3620.69 -6724.14 -15000 
-2586.21 -6724.14 -15000 -1551.72 -6724.14 -15000 -517.241 -6724.14 -15000 
517.241 -6724.14 -15000 1551.72 -6724.14 -15000 2586.21 -6724.14 -15000 
3620.69 -6724.14 -15000 4655.17 -6724.14 -15000 5689.66 -6724.14 -15000 
6724.14 -6724.14 -15000 7758.62 -6724.14 -15000 8793.1 -6724.14 -15000 
9827.59 -6724.14 -15000 10862.1 -6724.14 -15000 11896.6 -6724.14 -15000 
12931 -6724.14 -15000 13965.5 -6724.14 -15000 15000 -6724.14 -15000 
-15000 -5689.66 -15000 -13965.5 -5689.66 -15000 -12931 -5689.66 -15000 
-11896.6 -5689.66 -15000 -10862.1 -5689.66 -15000 -9827.59 -5689.66 -15000 
-8793.1 -5689.66 -15000 -7758.62 -5689.66 -15000 -6724.14 -5689.66 -15000 
-5689.66 -5689.66 -15000 -4655.17 -5689.66 -15000 -3620.69 -5689.66 -15000 
-2586.21 -5689.66 -15000 -1551.72 -5689.66 -15000 -517.241 -5689.66 -15000 
517.241 -5689.66 -15000 1551.72 -5689.66 -15000 2586.21 -5689.66 -15000 
3620.69 -5689.66 -15000 4655.17 -5689.66 -15000 5689.66 -5689.66 -15000 
6724.14 -5689.66 -15000 7758.62 -5689.66 -15000 8793.1 -5689.66 -15000 
9827.59 -5689.66 -15000 10862.1 -5689.66 -15000 11896.6 -5689.66 -15000 
12931 -5689.66 -15000 13965.5 -5689.66 -15000 15000 -5689.66 -15000 
-15000 -4655.17 -15000 -13965.5 -4655.17 -15000 -12931 -4655.17 -15000 
-11896.6 -4655.17 -15000 -10862.1 -4655.17 -15000 -9827.59 -4655.17 -15000 
-8793.1 -4655.17 -15000 -7758.62 -4655.17 -15000 -6724.14 -4655.17 -15000 
-5689.66 -4655.17 -15000 -4655.17 -4655.17 -15000 -3620.69 -4655.17 -15000 
-2586.21 -4655.17 -15000 -1551.72 -4655.17 -15000 -517.241 -4655.17 -15000 
517.241 -4655.17 -15000 1551.72 -4655.17 -15000 2586.21 -4655.17 -15000 
3620.69 -4655.17 -15000 4655.17 -4655.17 -15000 5689.66 -4655.17 -15000 
6724.14 -4655.17 -15000 7758.62 -4655.17 -15000 8793.1 -4655.17 -15000 
9827.59 -4655.17 -15000 10862.1 -4655.17 -15000 11896.6 -4655.17 -15000 
12931 -4655.17 -15000 13965.5 -4655.17 -15000 15000 -4655.17 -15000 
-15000 -3620.69 -15000 -13965.5 -3620.69 -15000 -12931 -3620.69 -15000 
-11896.6 -3620.69 -15000 -10862.1 -3620.69 -15000 -9827.59 -3620.69 -15000 
-8793.1 -3620.69 -15000 -7758.62 -3620.69 -15000 -6724.14 -3620.69 -15000 
-5689.66 -3620.69 -15000 -4655.17 -3620.69 -15000 -3620.69 -3620.69 -15000 
-2586.21 -3620.69 -15000 -1551.72 -3620.69 -15000 -517.241 -3620.69 -15000 
517.241 -3620.69 -15000 1551.72 -3620.69 -15000 2586.21 -3620.69 -15000 
3620.69 -3620.69 -15000 4655.17 -3620.69 -15000 5689.66 -3620.69 -15000 
6724.14 -3620.69 -15000 7758.62 -3620.69 -15000 8793.1 -3620.69 -15000 
9827.59 -3620.69 -15000 10862.1 -3620.69 -15000 11896.6 -3620.69 -15000 
12931 -3620.69 -15000 13965.5 -3620.69 -15000 15000 -3620.69 -15000 
-15000 -2586.21 -15000 -13965.5 -2586.21 -15000 -12931 -2586.21 -15000 
-11896.6 -2586.21 -15000 -10862.1 -2586.21 -15000 -9827.59 -2586.21 -15000 
-8793.1 -2586.21 -15000 -7758.62 -2586.21 -15000 -6724.14 -2586.21 -15000 
-5689.66 -2586.21 -15000 -4655.17 -2586.21 -15000 -3620.69 -2586.21 -15000 
-2586.21 -2586.21 -15000 -1551.72 -2586.21 -15000 -517.241 -2586.21 -15000 
517.241 -2586.21 -15000 1551.72 -2586.21 -15000 2586.21 -2586.21 -15000 
3620.69 -2586.21 -15000 4655.17 -2586.21 -15000 5689.66 -2586.21 -15000 
6724.14 -2586.21 -15000 7758.62 -2586.21 -15000 8793.1 -2586.21 -15000 
9827.59 -2586.21 -15000 10862.1 -2586.21 -15000 11896.6 -2586.21 -15000 
12931 -2586.21 -15000 13965.5 -2586.21 -15000 15000 -2586.21 -15000 
-15000 -1551.72 -15000 -13965.5 -1551.72 -15000 -12931 -1551.72 -15000 
-11896.6 -1551.72 -15000 -10862.1 -1551.72 -15000 -9827.59 -1551.72 -15000 
-8793.1 -1551.72 -15000 -7758.62 -1551.72 -15000 -6724.14 -1551.72 -15000 
-5689.66 -1551.72 -15000 -4655.17 -1551.72 -15000 -3620.69 -1551.72 -15000 
-2586.21 -1551.72 -15000 -1551.72 -1551.72 -15000 -517.241 -1551.72 -15000 
517.241 -1551.72 -15000 1551.72 -1551.72 -15000 2586.21 -1551.72 -15000 
[...]
POINT_DATA 25977
SCALARS electron_flux double
LOOKUP_TABLE default
500714.77615 491243.65609 482239.11324 455437.81047 425023.25162 399863.60777 366979.56357 342613.23444 312414.33134 
292012.04433 272243.37442 249035.30218 238902.24743 228955.10073 225778.34969 225418.26016 228292.70964 243481.13056 
254572.66539 271625.21178 290689.58343 312311.95392 343965.49423 372421.33684 403006.97977 427565.42275 454796.57322 
482393.64087 494050.26641 500235.71357 516812.08865 495673.92666 479582.23858 447258.15535 413958.56706 375145.69689 
344350.64109 307697.77277 278735.93519 259658.22022 235061.41468 221534.73199 204401.89692 199321.92805 193513.94146 
196493.36423 201342.8135 203168.72125 216582.21991 238268.07419 257532.93826 282004.88776 314337.87898 347342.33604 
380322.57742 408660.06733 448713.01204 473088.21785 502236.66706 514076.73433 520913.21526 493026.96 468089.68506 
425397.36506 390412.81362 353923.20001 317909.29714 277800.78081 249553.98971 229468.62609 207602.34602 187988.46016 
177920.04687 167662.29346 160474.92794 159056.52094 169608.8614 177468.87986 186881.25374 204727.96242 222448.129 
252702.06663 283544.11839 314145.31633 348761.01215 393338.24561 431804.04891 468769.94327 497577.59431 522537.93709 
517941.98762 492603.14075 446680.57894 410986.46371 369435.05205 325700.55726 283439.46198 248352.53449 223613.46955 
199106.64539 174483.75075 158042.98624 148735.1813 140324.92626 134693.32512 132193.7892 140692.9811 143602.83822 
157066.70216 172576.82813 199899.78282 220800.58741 248941.073 282496.56206 329046.09841 366226.2713 411458.44603 
454111.52595 484619.18059 523533.01404 520093.51403 479404.41404 435007.69933 391127.5186 339629.21888 301644.26077 
262103.00577 228696.39228 192234.91082 172495.20823 21891.91318 20112.279924 27409.950157 31194.300036 29847.524858 
29305.258323 30222.387845 24520.109745 25484.066089 15083.886563 172500.49012 191007.27319 222834.24337 262953.92908 
298613.2102 339760.77329 386474.01411 437543.23205 472663.71438 519704.44236 512170.9773 466375.55922 408923.70766 
365665.14219 320649.4936 268283.27133 231217.11686 202579.77563 168893.04816 30327.025714 34333.00303 43227.423517 
44075.183027 48934.668699 49139.759028 52095.119452 49076.242525 46991.331819 37594.949461 31394.275497 28730.222664 
167281.75303 199610.33157 231213.51483 268230.24482 312040.46238 367680.33438 416587.69299 464219.54277 502469.71736 
494122.8409 448978.58456 389904.48178 340057.87505 292409.98331 247220.9789 206376.85969 25021.77166 33791.483345 
44969.07583 58105.451987 70420.426805 79754.501926 83869.910714 87907.124037 89740.636819 83807.68261 79107.082121 
66365.87811 57692.530164 49719.317337 34486.342665 27885.32214 209123.00236 248090.38578 297450.72818 337494.43384 
398002.34097 440446.02997 500938.55606 483566.95031 432618.01511 368775.51956 318293.02482 274744.27066 228384.69177 
21615.826797 35114.23447 56150.588583 75977.825147 98550.203806 109016.33794 122391.14378 132052.14306 130352.29182 
131235.09615 128178.44958 120714.02159 109496.47426 95760.065771 74211.867907 56883.165886 38735.673171 28179.871596 
224023.50303 269586.96544 315933.58855 372568.64119 423552.77626 478516.40648 475090.06401 416709.9532 360413.42683 
300201.08674 254845.7303 214396.66041 41086.175514 58694.990483 89989.88823 120339.019 142443.44195 160812.71273 
178313.98201 180744.83496 187978.16662 183885.36114 183968.51848 177080.84547 163843.23741 145999.86769 118163.68325 
93305.240891 58833.867526 43702.500912 211050.13063 256432.50599 298773.48268 354713.60912 412517.70663 468711.37801 
461028.76793 399583.66565 343653.972 285632.85695 237992.89231 30467.692693 63360.815048 91968.772069 132875.79992 
166016.93538 203074.65887 230318.48764 240880.41718 241934.30852 244615.65771 243596.98304 244926.84804 245746.95034 
228778.47122 202078.13878 166007.32455 132029.41579 90419.362192 64666.361896 37250.758621 238648.38369 286970.7861 
335351.79714 393888.05582 452090.25931 440373.41391 388605.65922 332347.91425 276024.11213 27788.260571 45450.866261 
80108.198678 126665.866 178380.68731 230731.34145 273800.7516 306114.93534 313861.44506 310626.06964 302421.81771 
302481.03344 313211.58038 314440.08035 304084.63117 278189.37821 232183.79078 172624.29807 130914.37341 85690.654789 
50491.126866 22702.231452 278296.05244 328098.18343 387267.42609 445628.31196 434646.75091 379896.49295 312264.65102 
259779.22417 42257.204971 68637.711236 111369.55174 162839.06249 225046.0281 293760.96344 356803.50019 391147.42433 
400199.56233 377013.1505 350807.33466 350426.82108 380716.4011 397064.43657 393523.06332 359250.42074 300298.08074 
228274.95976 161625.99512 105153.50972 67654.413767 40304.216389 268482.05931 315410.45359 371306.03981 435312.0992 
427667.5101 363977.52834 310389.02283 253291.94196 45650.267781 80955.161765 134428.72237 200429.80074 282447.60414 
367580.53399 434954.9509 485437.25602 490707.86026 458800.4306 392881.5161 395095.40339 455522.66875 491196.78045 
477961.65949 430618.23985 356206.3511 278382.86225 200941.61682 130371.13715 74015.904746 44084.74238 252512.10806 
309530.24263 370519.34036 428808.36462 430425.7697 360229.0422 300009.29333 250189.34254 45628.887696 88385.194609 
146821.85482 231456.41363 315502.56429 419587.5957 510466.5518 573956.73821 605705.54628 564859.65686 448556.36181 
447459.73073 566685.39428 600794.06679 572237.3485 510225.25302 411468.57336 322483.85963 222022.88517 152027.01934 
92844.196354 54542.404539 246506.77783 300160.01268 366882.0921 424394.0703 425327.61269 355577.39076 303080.68645 
245357.61067 53331.524974 102921.69707 164630.04874 246966.6489 346499.10106 446037.8393 553193.91975 635904.05267 
694605.30623 724914.86354 606068.20191 601978.24259 724744.3995 698897.26446 636268.63548 548499.5586 447578.18844 
341514.88184 240059.24612 159025.72733 100227.69795 58761.878232 246756.04249 300042.97971 363198.96308 415397.64661 
425140.09787 363631.36287 295158.75845 250026.27311 60125.101542 95689.810853 155798.47927 240676.27612 336272.48853 
452024.49761 547043.18189 636232.32918 700838.55463 725913.73547 609523.37119 610223.95039 730948.0134 699600.48031 
629176.07473 546566.28851 442215.26689 335732.02404 247763.6036 162814.02432 100966.98948 53009.147068 249537.16008 
301567.51289 358256.63684 425331.09022 425754.32604 357211.92796 299933.15685 245805.76013 53470.610258 96884.070353 
146041.00742 225900.31564 324968.33416 412787.75472 500089.34663 577169.59943 601766.89984 564908.58901 443724.50192 
442510.77373 570317.6979 599900.70939 578882.17422 504912.02353 414384.46346 320544.69495 224306.28165 145397.55952 
95791.425148 53952.080034 252352.62664 304781.50576 360871.95431 427139.41776 430556.68384 363169.11325 308553.62919 
251548.98563 45523.102527 75154.754687 129973.32321 202931.02052 273863.23622 361066.78787 435238.18574 486668.32918 
489267.51217 455919.8025 394468.72763 398865.55425 452833.89447 489320.51366 486094.19631 429455.00094 362595.03737 
280403.79667 197345.46868 129997.75774 77754.315162 50942.754027 261871.94628 302788.78129 365019.73364 432003.68052 
442224.20198 380853.41083 319664.03267 262487.13594 34869.299131 68217.285035 106392.00649 168835.14584 231094.33191 
300839.74756 351338.21744 392958.92807 396795.37186 373844.18106 354374.05865 347773.36089 376878.11962 398401.42568 
391190.10033 352326.09161 300307.29827 230047.45074 169628.23543 111536.65338 65105.27762 42593.319932 267259.02134 
313706.42697 370131.07123 436461.13631 446139.72555 386234.19723 329112.44136 270905.6835 24717.858349 50555.789668 
85910.462976 126318.86152 177949.62122 235478.90437 275171.08281 306585.71845 319418.89875 312676.00373 299916.67121 
300011.83709 313251.86069 314309.30035 309214.84734 271336.76613 227033.3249 173463.15799 121851.11447 82488.420308 
47638.069243 30716.410871 279891.0773 329876.38794 381737.75087 439820.31509 453186.54406 398395.25017 338649.04716 
286262.11962 243316.60423 35549.047958 61085.812419 88345.094533 124687.60744 173732.62729 200341.36399 226114.09172 
239913.97514 248231.72773 239625.41482 244521.62773 244935.19306 241341.06748 230509.47583 207543.15727 167794.40995 
126028.36394 93872.710466 59463.034265 31137.689292 241207.32447 289257.31786 344152.87783 401872.48571 454214.1373 
472365.65547 410615.78948 357509.97347 304302.07534 256775.02357 212628.31722 41629.44152 60071.935484 85601.949876 
114204.65335 140864.87439 166794.83227 175347.52385 184558.21085 182298.11692 182172.64576 184795.31107 174153.01957 
165484.19063 143744.24046 121227.28193 91502.182961 66251.46227 39269.100938 211050.54286 258338.12094 308191.78819 
356969.73292 412514.06067 470813.66865 481306.62724 427261.01866 379733.49303 324635.66555 268414.34575 230498.82831 
25003.31496 39904.305429 52619.339178 71818.61346 95555.689869 107845.58774 120301.22501 130955.02316 133580.40621 
129086.68491 125474.3539 122716.57031 110495.12067 96246.973207 73383.373417 55453.380898 39826.911627 26602.41612 
232986.14498 277457.18973 323992.60485 369396.22427 428437.49265 483791.81786 493923.48916 447917.72805 391011.23707 
339964.98697 293905.51126 247857.58612 210166.70973 28433.479465 31207.078272 49882.921243 62577.211438 71902.587579 
81606.750215 85249.666029 86871.248248 86081.756249 81969.538265 79125.618534 70600.798999 62003.790097 46854.317764 
36749.733512 28683.463451 213412.36614 245610.21294 296003.26322 338626.5406 393798.96941 451243.40021 498272.66067 
512507.75244 461865.84297 415448.13331 366803.36762 317406.07769 270746.21739 229206.00208 199877.91305 171732.04524 
23202.348556 36168.515694 39737.202996 47875.375487 53865.072984 53723.33688 53863.40806 50943.45718 46424.882642 
42082.741573 36551.278377 30366.185279 172869.16977 197454.37764 236345.90689 272451.57324 315773.4025 361931.98714 
408786.00254 461369.28385 505140.18676 512541.71961 472303.50018 431360.1432 386284.91469 344039.40659 297073.46225 
259716.48091 227702.35322 198334.99833 172900.15415 17577.821441 25885.579128 23481.701479 30871.958109 32238.586042 
26600.128556 29646.789168 27708.581547 26049.72166 20760.062591 165690.3964 192677.98356 224842.03053 262537.07213 
294363.45286 345871.99384 387625.28646 433325.34148 479935.73237 516520.10234 524077.9351 487853.7712 446923.93009 
405406.14608 361995.03703 329597.27767 287426.04106 250527.88102 219200.86389 196766.78162 173955.6878 158234.78333 
143307.4562 140409.61169 131133.5348 136808.48488 135350.86387 146562.74941 160601.2023 173378.61446 195856.01667 
224648.44235 254821.97129 286109.26921 324596.89163 363818.40762 407343.93206 455519.17706 488795.23246 518057.46928 
527138.37018 493735.17352 468718.59552 427230.21256 386306.12147 350388.50928 315207.9236 283429.803 254380.48358 
227630.85164 201379.41973 187742.56191 177587.5896 165020.07327 159460.83971 160196.82661 169177.66468 173931.72043 
190517.95187 201806.09385 226737.37182 250153.29165 280371.20032 311318.86624 354576.46668 386105.31337 429350.11899 
466634.33986 496356.83606 525497.61564 510740.36474 502555.74488 472920.19065 442144.87169 415107.38284 380015.71049 
347070.15764 315340.44785 286624.68298 257176.23691 238943.15839 216681.36681 209853.2069 194855.49389 192729.38939 
192353.79681 201329.66663 206006.65797 219222.08241 237312.53357 260939.73216 282021.99386 310193.83796 345385.27995 
378149.71356 407519.0036 444477.47392 471183.51628 497342.94269 512310.70623 500702.46813 493705.42407 479260.18886 
453505.3171 431964.60108 397973.08435 367884.32069 340134.05758 312947.16639 286585.45788 267519.9746 252329.19974 
238798.15446 234855.89795 224924.01623 229965.15053 228027.12502 236744.15831 251460.80004 265724.66402 285861.3095 
316502.77227 336783.66131 366383.90751 399537.26461 423941.09002 457252.86047 476276.69087 495317.09191 504592.52888 
509415.09388 483961.78024 466877.93299 439700.31955 403501.6419 369572.39792 340738.34598 305610.00186 275452.65452 
257998.35452 234140.42046 216806.54846 208034.81656 197534.14897 193384.06468 194648.99542 197070.13528 205463.88651 
219717.45868 236581.09279 253455.32602 278298.23529 302543.93107 335296.47748 372684.57296 399320.06606 435365.86236 
465844.16097 488326.77808 508435.70286 506600.33098 488111.51534 453740.85096 416317.99908 375453.2496 338426.54378 
301960.04228 274845.85788 243805.21073 220531.23979 200962.59572 180384.30602 168701.38678 161524.70643 156389.1991 
159020.11823 166394.2985 174573.12329 179905.40647 197259.62968 220667.07295 247702.6691 271092.1394 305584.55193 
343213.81842 379482.52624 416536.85244 449774.32299 482372.6163 508812.55266 505192.832 475158.01365 436572.74468 
388381.64329 351112.58206 308776.84281 271179.74538 239917.31062 208820.95196 184150.43385 170082.85728 152460.59947 
139440.72996 14049.576967 18295.496634 16565.014844 18737.254153 137341.7496 154067.61509 168401.95192 190252.87213 
208412.33858 243935.20257 269803.53188 309277.63213 351551.91349 390736.50006 437304.33379 471984.99307 506093.08908 
501380.64526 460333.51892 412298.01879 371936.62047 322410.56411 277449.35336 244696.87369 208564.38459 177599.12428 
156979.81196 18527.799772 25168.231844 27536.581262 29945.816855 36651.67101 34463.72678 35204.451267 32873.881771 
24196.994496 23565.221787 158432.15006 177067.56285 205061.83826 244974.08766 282484.8431 326995.69432 370325.60107 
415415.22879 455538.91602 502244.24678 490397.60279 436886.49624 384222.76586 337410.17633 296922.31179 253672.68385 
214354.15451 181140.09584 24578.570098 30278.990311 41713.01353 47081.982434 58631.751336 64197.114362 62809.930551 
64307.477029 66227.651771 59301.732484 53786.381068 42263.911717 36746.988297 27734.68261 180142.82499 209447.28056 
249471.0642 297982.18649 343868.42398 392654.28085 436092.44733 484891.08288 467104.44868 418344.71149 361994.4455 
311113.96443 270811.933 226636.10519 186875.38446 35598.807907 40427.058421 64123.834859 75876.221563 89893.700117 
103532.75614 111923.96417 110360.03715 111093.99389 106472.47567 99590.033896 92172.493565 76665.107337 63431.636617 
40089.900396 35189.026853 189059.25538 225056.54162 266311.24585 311764.65059 363548.46962 422314.30168 471963.68751 
447973.69173 391943.99843 344636.30118 293053.77133 240255.9041 198314.37868 33890.587197 53808.840904 74161.761535 
106691.49125 126208.79692 148117.89063 163555.90382 170247.68626 179410.79954 179075.45626 168996.60684 160709.82836 
148455.631 125814.01708 99074.624245 79612.917129 53664.898403 36551.727261 205231.20018 238434.14998 294562.50443 
338287.80834 400701.68455 451168.66325 436715.89227 372666.88277 314194.46757 261340.01457 220107.62492 35163.517733 
59937.836674 91425.745578 124185.1634 160189.96426 200167.37514 219187.40529 241606.41624 250125.90771 253512.53714 
250412.8093 251846.83421 242384.49589 224162.51799 197191.19506 159400.57547 123582.28127 83925.886656 63277.829265 
32694.469082 221104.91822 268566.32376 320927.1398 374863.68898 435659.31161 422655.94291 354899.60726 300102.5102 
248664.15768 26507.467111 51044.018067 93768.800922 138982.80588 183391.85987 239598.94101 284509.17329 313024.90272 
330870.22164 331636.84213 334919.97391 331467.26278 336307.15229 327794.76644 311234.24502 284490.72488 237735.43953 
189805.7021 138431.04199 93047.549835 59001.260095 27258.972837 246947.98959 303106.06911 354770.04146 422394.5281 
405220.73889 345562.95873 282496.94255 227060.20216 42627.973356 80036.168376 128851.43358 189056.10714 259219.32106 
329680.43043 383192.65285 411800.93158 428512.60796 419219.1389 415858.41904 415380.64891 423333.85406 425774.91203 
415532.93209 381336.67098 329453.92487 268284.39749 190660.09083 133410.18362 83365.354439 45187.6855 234416.57315 
279508.71033 340028.31049 399290.73814 388059.61092 319384.61604 268422.92786 37854.749441 62404.495824 106405.9907 
176791.12781 262031.94592 353211.1704 435935.79797 493136.4681 522212.18645 528660.13953 500763.25241 481060.51033 
479222.49305 500246.27451 529431.17673 527230.60266 495719.6841 428053.7436 347728.38421 255836.06424 178270.59202 
108130.46563 67545.248436 31806.129557 267919.44592 324297.96769 386959.47305 379601.50715 310203.63064 250577.42612 
43033.936777 78710.995691 146510.02124 225840.95013 325050.89823 432780.58355 536725.08363 611863.80594 642081.74711 
631469.74904 585436.05712 542346.56133 537500.68495 583744.36175 633063.67348 645087.48105 614334.74723 535747.09159 
433562.31584 323994.75325 231784.90902 148308.64884 81392.520409 41861.208785 262062.49978 314948.43554 371243.08329 
369510.08706 308635.34348 249839.6525 48211.701433 98961.730218 177180.31356 278200.94539 391299.66844 520051.02171 
638991.60561 727278.39373 771895.93319 756795.39524 685513.28757 584523.60363 586472.20484 686296.54167 754644.13901 
772807.39976 720324.43154 635744.07257 524124.93509 397547.83889 272368.52353 172392.07304 96122.618406 50421.53308 
254412.83548 299377.22906 361313.60041 360700.74485 294216.31893 35881.897873 66683.709425 110392.57225 190613.00029 
309619.47618 436788.82515 585565.9716 709117.59342 828425.23113 886880.58131 903589.27539 827964.52439 644200.82347 
646643.85888 829152.78724 909623.50201 896512.22708 816141.00822 719457.38967 587553.73703 441773.44941 303615.44173 
194810.57084 109277.54351 59871.553301 31830.080173 302603.34138 360306.54847 362656.14131 291610.90392 33092.765292 
61579.257652 118323.68276 212010.73631 325822.05964 461365.51974 617118.77174 758092.67931 882768.02831 973831.4815 
1037017.1253 1050264.0283 867504.61427 859313.98908 1044652.6143 1032796.4396 981063.90184 883375.78714 753699.47828 
622278.02324 471573.2197 323076.22388 207870.36931 126873.35002 68064.339004 29854.945463 296635.72482 360911.85339 
359652.0083 297056.15848 37885.297694 61589.958226 124148.82266 203095.48146 332491.5964 467623.2912 611694.20832 
753775.48857 883765.48315 979446.96022 1041057.6202 1050680.5098 862909.22764 866369.75959 1053686.6857 1042436.513 
970837.1716 877063.94146 759836.08655 610965.45422 465336.46139 332085.64161 205462.45649 122158.15185 60168.342356 
30017.329019 299735.89437 358022.37078 364363.46086 297556.16929 28838.901368 58061.680861 110678.59686 193011.73184 
309157.26698 440161.42627 581628.45997 717088.47404 819653.54553 895338.55865 904637.48781 834422.59398 641550.35035 
646665.59147 827522.11096 909628.20975 894352.25033 820616.71087 719885.71306 575062.4192 445563.04397 311888.96852 
197826.67337 118236.7257 63141.484113 31871.959736 295856.6955 357378.21123 366623.47981 299858.43065 253074.02149 
55614.753956 100323.14928 175898.18726 278080.84181 386466.3803 516419.17734 639105.7027 723826.78775 773049.1177 
758636.65166 683074.30202 588124.5359 590916.38421 683373.99911 754082.05587 768036.1642 721849.31477 633729.58653 
512588.68648 388951.30175 273774.84248 178718.54203 100657.61423 58219.325812 249463.61549 299594.9249 361761.36642 
377679.88067 308486.34374 251311.15375 43166.475858 78133.068743 144695.19099 224388.48878 325391.44522 433300.93458 
534891.34975 607355.42635 646371.35735 630402.18742 583170.10744 538532.69591 537614.07443 584344.77758 637298.89712 
647826.57939 609252.84717 540956.67638 438161.61841 326760.69428 226281.63718 141087.17438 78973.631179 49974.683053 
253461.28493 318628.97195 377643.97479 391206.49963 328236.50847 272271.23694 28254.398117 69745.995328 114380.81645 
174995.65261 256172.24418 351838.81164 427507.13992 489209.85327 528518.49493 523332.23574 500745.31522 482211.68641 
480412.35277 503901.74734 521592.28594 528903.2604 495298.18146 429559.86754 354787.72176 259975.47815 174836.80148 
111389.14907 62551.290125 34645.518718 272030.88598 330207.77815 382990.8049 398712.06779 339465.67355 277112.85292 
236972.43533 42797.353907 82037.60385 127574.11913 191167.84813 260108.25578 333593.87463 385549.90745 410809.51793 
424827.77266 421211.95656 413229.96369 414823.09348 422377.96193 423063.47261 416689.75515 379338.37292 330778.11344 
263381.95998 192798.01168 134784.73007 76339.11436 43478.103983 230679.02242 284980.91865 339689.20426 396850.12423 